# vtk DataFile Version 1.0
3D triangulation data
ASCII

DATASET POLYDATA
POINTS 11 float
0.00 0.00 0.00
3.00 0.00 0.00
6.00 0.00 0.00
18.00 0.00 0.00
21.00 0.00 0.00
24.00 0.00 0.00
21.00 2.25 0.00
18.00 4.50 0.00
12.00 9.00 0.00
6.00 4.5 0.00
3.00 2.25 0.00
LINES 19 57
2	0	1
2	1	2
2	2	3
2	3	4
2	4	5
2	5	6
2	6	7
2	7	8
2	8	9
2	9	10	
2	10	0
2	1	10
2	10	2
2	2	9
2	7	9
2	7	2
2	3	7	
2	3	6
2	4	6
CELL_DATA 19
VECTORS Forces float
0 341.4051 0
0 334.4433 0
0 -333.2799 0
0 333.6829 0
0 338.9921 0
0 -4163.1137 0
0 -3333.3273 0
0 -833.3331 0
0 -833.1057 0
0 -3333.0420 0
0 -4161.1571 0
0 1.9553 0
0 -832.0053 0
0 500.3393 0
0 -1999.9466 0
0 0.0680 0
0 500.0145 0
0 -832.8571 0
0 0.8762 0
