# vtk DataFile Version 1.0
3D triangulation data
ASCII

DATASET POLYDATA
POINTS 11 float
0.00 0.00 0.00
3.00 0.00 0.00
6.00 0.00 0.00
18.00 0.00 0.00
21.00 0.00 0.00
24.00 0.00 0.00
21.00 2.25 0.00
18.00 4.50 0.00
12.00 9.00 0.00
6.00 4.5 0.00
3.00 2.25 0.00
LINES 19 57
2	0	1
2	1	2
2	2	3
2	3	4
2	4	5
2	5	6
2	6	7
2	7	8
2	8	9
2	9	10	
2	10	0
2	1	10
2	10	2
2	2	9
2	7	9
2	7	2
2	3	7	
2	3	6
2	4	6
POINT_DATA 11
VECTORS Displacements float
0.00000	0.00000 0
0.00005	-0.00270 0 
0.00010	-0.00369 0 
-0.00010 -0.00282 0
-0.00005 -0.00226 0
0.00000	0.00000 0
-0.00072 -0.00226 0
-0.00027 -0.00271 0
0.00000	-0.00286 0
0.00093	-0.00358 0
0.00104	-0.00270 0



